 Gaussian 09, Revision D.01,
 Gaussian 09:  ES64L-G09RevD.01 24-Apr-2013

 -------------------------------------------------------
 # td(50-50,nstates=5) wB97XD/TZVP 6D 10F nosymm GFInput
 -------------------------------------------------------

 ----
 test
 ----
 Symbolic Z-matrix:
 Charge =  0 Multiplicity = 1

                          Input orientation:
 ---------------------------------------------------------------------
 Center     Atomic      Atomic             Coordinates (Angstroms)
 Number     Number       Type             X           Y           Z
 ---------------------------------------------------------------------
      1          6           0       -0.131829   -0.000001   -0.000286
      2          8           0        1.065288    0.000001    0.000090
      3          1           0       -0.718439    0.939705    0.000097
      4          1           0       -0.718441   -0.939705    0.000136
 ---------------------------------------------------------------------

 SCF Done:  E(RwB97XD) =  -114.507418101     A.U. after   15 cycles

 Excitation energies and oscillator strengths:

 Excited state symmetry could not be determined.
 Excited State   1:      Triplet-?Sym    3.3510 eV  369.99 nm  f=0.0000  <S**2>=2.000
       8 ->  9         0.70497
 This state for optimization and/or second-order correction.
 Total Energy, E(TD-HF/TD-KS) =  -114.384270117
 Copying the excited state density for this state as the 1-particle RhoCI density.

 Excited state symmetry could not be determined.
 Excited State   2:      Singlet-?Sym    4.0272 eV  307.87 nm  f=0.0000  <S**2>=0.000
       8 ->  9         0.70541

 Excited state symmetry could not be determined.
 Excited State   3:      Triplet-?Sym    5.6721 eV  218.58 nm  f=0.0000  <S**2>=2.000
       7 ->  9         0.70945
       7 <-  9         0.11883

 Excited state symmetry could not be determined.
 Excited State   4:      Triplet-?Sym    8.0749 eV  153.54 nm  f=0.0000  <S**2>=2.000
       8 -> 10         0.69783

 Excited state symmetry could not be determined.
 Excited State   5:      Triplet-?Sym    8.1309 eV  152.49 nm  f=0.0000  <S**2>=2.000
       6 ->  9         0.70318

 Excited state symmetry could not be determined.
 Excited State   6:      Singlet-?Sym    8.4726 eV  146.34 nm  f=0.1108  <S**2>=0.000
       8 -> 10         0.69436
       8 -> 11         0.12125

 Excited state symmetry could not be determined.
 Excited State   7:      Singlet-?Sym    9.2789 eV  133.62 nm  f=0.0007  <S**2>=0.000
       6 ->  9         0.70438

 Excited state symmetry could not be determined.
 Excited State   8:      Triplet-?Sym    9.3176 eV  133.06 nm  f=0.0000  <S**2>=2.000
       8 -> 11         0.70180

 Excited state symmetry could not be determined.
 Excited State   9:      Singlet-?Sym    9.5754 eV  129.48 nm  f=0.0479  <S**2>=0.000
       8 -> 10        -0.12090
       8 -> 11         0.69517

 Excited state symmetry could not be determined.
 Excited State  10:      Singlet-?Sym    9.7038 eV  127.77 nm  f=0.0266  <S**2>=0.000
       7 ->  9         0.58708
       8 -> 12         0.37401

 Alpha  occ. eigenvalues --  -19.27187 -10.38964  -1.17387  -0.73374  -0.59272
 Alpha  occ. eigenvalues --   -0.54693  -0.49554  -0.35837
 Alpha virt. eigenvalues --    0.02451   0.13462   0.19144   0.19548   0.28632
 Alpha virt. eigenvalues --    0.29336   0.34806   0.49091   0.51944   0.52296
 Alpha virt. eigenvalues --    0.59994   0.61104   0.70494   0.76778   1.24040

 Mulliken charges:
               1
     1  C    0.122307
     2  O   -0.278208
     3  H    0.077950
     4  H    0.077951
 Sum of Mulliken charges =   0.00000

 Dipole moment (field-independent basis, Debye):
    X=             -2.4212    Y=              0.0000    Z=             -0.0003  Tot=              2.4212
 Quadrupole moment (field-independent basis, Debye-Ang):
   XX=            -14.1347   YY=            -11.5210   ZZ=            -11.5523
   XY=              0.0000   XZ=             -0.0004   YZ=              0.0000

 1\1\GINC-XE31TH22\SP\RwB97XD TD-FC\TZVP\C1H2O1\XINGGAO\07-Dec-2015\0\\
 # td(50-50,nstates=5) wB97XD/TZVP 6D 10F nosymm GFInput\\test\\0,1\C,0
 ,-0.131829,-0.000001,-0.000286\O,0,1.065288,0.000001,0.00009\H,0,-0.71
 8439,0.939705,0.000097\H,0,-0.718441,-0.939705,0.000136\\Version=ES64L
 -G09RevD.01\HF=-114.5074181\RMSD=2.843e-09\PG=C01 [X(C1H2O1)]\\@

 SEEN ON A WALL AT THE UNIVERSITY OF ILLINOIS AT CHICAGO CIRCLE:

 Normal termination of Gaussian 09 at Mon Dec  7 18:04:42 2015.
